

42498 atoms
6 atom types
13262 bonds
2 bond types
12631 angles
2 angle types

-92.2324242 92.2324242 xlo xhi
-32.2324242 32.2324242 ylo yhi
-32.2324242 32.2324242 zlo zhi

Masses

1 1
2 1
3 2
4 2
5 2
6 1

Pair Coeffs # lj/cut

1 12 1
2 12 1
3 12 1
4 12 1
5 12 1
6 12 1

Bond Coeffs # fene

1 30 1.5 1 1
2 30 1.0 0.71 0.71

Angle Coeffs # harmonic

1 1 180.0
2 20 90

Atoms # angle

1 2 2 34.54521282631081 1.3444929828718573 -1.6933785496542668 
2 2 2 34.550603450060585 0.8350091679772844 -1.2184189109557013 
3 2 2 34.55599407381035 0.3255253530827116 -0.7434592722571356 
4 1 1 34.56138469756013 -0.18395846181186126 -0.2684996335585701 
5 1 1 34.566775321309905 -0.6934422767064338 0.2064600051399955 
6 1 1 34.14739607764027 -0.7840221481690584 0.4906506297089229 
7 1 1 33.72801683397065 -0.874602019631683 0.7748412542778503 
8 1 1 33.30863759030102 -0.9651818910943076 1.0590318788467776 
9 1 1 32.889258346631394 -1.0557617625569322 1.343222503415705 
10 1 1 32.46987910296176 -1.146341634019557 1.6274131279846324 
11 1 1 32.51922349619397 -1.4611473527864443 2.039682159967353 
12 1 1 32.568567889426184 -1.7759530715533316 2.4519511919500734 
13 1 1 32.6179122826584 -2.0907587903202187 2.864220223932794 
14 1 1 32.66725667589061 -2.405564509087106 3.2764892559155143 
15 1 1 32.716601069122824 -2.7203702278539934 3.688758287898235 
16 1 1 32.755324823081175 -3.1100360221719305 4.054400643245909 
17 1 1 32.794048577039526 -3.4997018164898677 4.4200429985935825 
18 1 1 32.83277233099787 -3.8893676108078052 4.785685353941257 
19 1 1 32.87149608495622 -4.279033405125743 5.15132770928893 
20 1 1 32.91021983891457 -4.6686991994436795 5.516970064636604 
21 1 1 33.044798757298956 -4.673902981612162 6.032654779215729 
22 1 1 33.17937767568334 -4.679106763780645 6.548339493794853 
23 1 1 33.31395659406773 -4.684310545949127 7.064024208373978 
24 1 1 33.44853551245212 -4.6895143281176095 7.5797089229531025 
25 1 1 33.5831144308365 -4.694718110286092 8.095393637532228 
26 1 1 33.64607765014821 -4.243708859381487 8.391970617198748 
27 1 1 33.709040869459905 -3.792699608476881 8.68854759686527 
28 1 1 33.77200408877161 -3.3416903575722756 8.98512457653179 
29 1 1 33.83496730808331 -2.89068110666767 9.281701556198312 
30 1 1 33.89793052739501 -2.4396718557630646 9.578278535864833 
31 1 1 34.335445609013235 -2.173627463860161 9.353409898881893 
32 1 1 34.77296069063146 -1.9075830719572573 9.12854126189895 
33 1 1 35.21047577224969 -1.6415386800543539 8.90367262491601 
34 1 1 35.64799085386791 -1.3754942881514503 8.678803987933069 
35 1 1 36.08550593548613 -1.1094498962485466 8.453935350950129 
36 1 1 35.861379789733924 -0.8040388786857349 8.809768389126967 
37 1 1 35.63725364398171 -0.4986278611229231 9.165601427303805 
38 1 1 35.4131274982295 -0.19321684356011137 9.521434465480642 
39 1 1 35.189001352477284 0.11219417400270038 9.87726750365748 
40 1 1 34.964875206725075 0.41760519156551207 10.233100541834318 
41 2 2 35.36283019958839 0.8022981437469328 10.13554121960042 
42 2 2 35.7607851924517 1.1869910959283534 10.037981897366521 
43 2 2 36.158740185315004 1.5716840481097742 9.940422575132624 
44 1 1 36.556695178178316 1.9563770002911949 9.842863252898725 
45 1 1 36.95465017104163 2.3410699524726155 9.745303930664827 
46 1 1 36.96842865970692 2.7290737327332972 10.168107990982204 
47 1 1 36.982207148372225 3.117077512993979 10.590912051299581 
48 1 1 36.99598563703752 3.5050812932546602 11.013716111616958 
49 1 1 37.00976412570282 3.893085073515342 11.436520171934333 
50 1 1 37.02354261436812 4.281088853776024 11.85932423225171 
51 1 1 36.579721292909674 4.608295628193347 11.879286132918809 
52 1 1 36.13589997145123 4.935502402610671 11.899248033585907 
53 1 1 35.692078649992794 5.262709177027993 11.919209934253008 
54 1 1 35.24825732853435 5.589915951445317 11.939171834920106 
55 1 1 34.80443600707591 5.91712272586264 11.959133735587205 
56 1 1 34.68254452994504 6.281987858728783 11.592642720270488 
57 1 1 34.560653052814175 6.646852991594926 11.22615170495377 
58 1 1 34.438761575683316 7.011718124461069 10.859660689637053 
59 1 1 34.31687009855245 7.376583257327211 10.493169674320335 
60 1 1 34.19497862142158 7.741448390193354 10.126678659003618 
61 1 1 34.541774627975094 8.126772776420724 9.983060826243493 
62 1 1 34.88857063452861 8.512097162648095 9.839442993483368 
63 1 1 35.23536664108212 8.897421548875466 9.695825160723246 
64 1 1 35.58216264763564 9.282745935102836 9.55220732796312 
65 1 1 35.92895865418915 9.668070321330207 9.408589495202996 
66 1 1 35.763274533416975 10.110613466767854 9.050431862510258 
67 1 1 35.5975904126448 10.553156612205498 8.692274229817519 
68 1 1 35.43190629187262 10.995699757643145 8.334116597124781 
69 1 1 35.266222171100445 11.43824290308079 7.975958964432044 
70 1 1 35.10053805032827 11.880786048518436 7.617801331739305 
71 1 1 35.15204688764856 11.824646374635115 7.101825587493513 
72 1 1 35.20355572496885 11.768506700751795 6.58584984324772 
73 1 1 35.25506456228915 11.712367026868474 6.069874099001928 
74 1 1 35.30657339960944 11.656227352985153 5.553898354756136 
75 1 1 35.35808223692973 11.600087679101833 5.037922610510344 
76 1 1 34.97323596213611 11.578435271604482 4.673778317068704 
77 1 1 34.58838968734248 11.55678286410713 4.309634023627066 
78 1 1 34.203543412548854 11.535130456609782 3.9454897301854266 
79 1 1 33.81869713775522 11.51347804911243 3.5813454367437876 
80 1 1 33.4338508629616 11.49182564161508 3.2172011433021486 
81 2 2 33.14007401225344 11.082902660565818 3.127305217026404 
82 2 2 32.84629716154528 10.673979679516558 3.03740929075066 
83 2 2 32.552520310837124 10.265056698467296 2.947513364474915 
84 1 1 32.25874346012897 9.856133717418036 2.8576174381991706 
85 1 1 31.96496660942081 9.447210736368774 2.767721511923426 
86 1 1 31.986122976851618 8.9910142198057 2.5535719570128506 
87 1 1 32.00727934428242 8.534817703242627 2.339422402102275 
88 1 1 32.02843571171323 8.078621186679555 2.1252728471916993 
89 1 1 32.04959207914404 7.622424670116482 1.9111232922811237 
90 1 1 32.07074844657485 7.1662281535534085 1.696973737370548 
91 1 1 31.80065660301926 6.681232333780874 1.523017358123326 
92 1 1 31.53056475946367 6.196236514008339 1.349060978876104 
93 1 1 31.260472915908082 5.711240694235804 1.1751045996288823 
94 1 1 30.99038107235249 5.226244874463269 1.0011482203816602 
95 1 1 30.720289228796904 4.741249054690734 0.8271918411344382 
96 1 1 31.111648514049108 4.436290860662977 0.6469485428264963 
97 1 1 31.503007799301308 4.1313326666352195 0.4667052445185543 
98 1 1 31.89436708455351 3.826374472607462 0.2864619462106123 
99 1 1 32.285726369805715 3.5214162785797045 0.10621864790267033 
100 1 1 32.677085655057915 3.216458084551947 -0.07402465040527158 
101 1 1 32.8629130843446 2.919017373983086 0.3081743100362338 
102 1 1 33.04874051363129 2.621576663414225 0.6903732704777391 
103 1 1 33.23456794291797 2.324135952845364 1.0725722309192447 
104 1 1 33.42039537220466 2.026695242276503 1.45477119136075 
105 1 1 33.60622280149134 1.729254531707642 1.8369701518022552 
106 1 1 33.71701601037467 1.4060859215170836 2.240907573282359 
107 1 1 33.82780921925799 1.0829173113265251 2.6448449947624626 
108 1 1 33.93860242814132 0.7597487011359667 3.0487824162425667 
109 1 1 34.049395637024645 0.4365800909454083 3.4527198377226704 
110 1 1 34.160188845907975 0.11341148075484997 3.856657259202774 
111 1 1 34.50639352026362 0.22433210327428893 4.224324176420165 
112 1 1 34.85259819461926 0.3352527257937279 4.591991093637555 
113 1 1 35.19880286897491 0.4461733483131668 4.9596580108549455 
114 1 1 35.54500754333055 0.5570939708326057 5.327324928072336 
115 1 1 35.891212217686196 0.6680145933520447 5.694991845289726 
116 1 1 36.37325002416165 0.6740483609209035 6.029168261758703 
117 1 1 36.8552878306371 0.6800821284897622 6.36334467822768 
118 1 1 37.33732563711255 0.6861158960586211 6.697521094696656 
119 1 1 37.819363443588 0.6921496636274799 7.031697511165633 
120 1 1 38.301401250063456 0.6981834311963386 7.36587392763461 
121 2 2 38.630858959982795 1.0707929131999128 7.503443248122966 
122 2 2 38.960316669902134 1.4434023952034867 7.6410125686113215 
123 2 2 39.28977437982147 1.8160118772070608 7.778581889099678 
124 1 1 39.61923208974081 2.188621359210635 7.916151209588034 
125 1 1 39.94868979966015 2.561230841214209 8.05372053007639 
126 1 1 39.82091410182774 2.995379267139265 8.336309675530535 
127 1 1 39.69313840399533 3.4295276930643213 8.618898820984677 
128 1 1 39.56536270616292 3.8636761189893774 8.901487966438822 
129 1 1 39.43758700833051 4.297824544914434 9.184077111892964 
130 1 1 39.3098113104981 4.7319729708394895 9.466666257347109 
131 1 1 39.60014111190276 5.200918996151132 9.392725820997676 
132 1 1 39.890470913307425 5.669865021462774 9.318785384648244 
133 1 1 40.180800714712085 6.138811046774418 9.24484494829881 
134 1 1 40.47113051611675 6.60775707208606 9.170904511949379 
135 1 1 40.76146031752141 7.0767030973977025 9.096964075599946 
136 1 1 41.04325284259523 7.687523283275179 9.07843068023471 
137 1 1 41.325045367669055 8.298343469152655 9.059897284869473 
138 1 1 41.606837892742874 8.909163655030133 9.041363889504238 
139 1 1 41.8886304178167 9.51998384090761 9.022830494139 
140 1 1 42.17042294289052 10.130804026785086 9.004297098773765 
141 1 1 42.38998910685103 10.277363397006654 8.530376494540532 
142 1 1 42.60955527081155 10.423922767228222 8.056455890307296 
143 1 1 42.829121434772055 10.57048213744979 7.582535286074062 
144 1 1 43.04868759873257 10.717041507671357 7.108614681840828 
145 1 1 43.268253762693085 10.863600877892926 6.634694077607593 
146 1 1 43.04525718249084 11.329127396381095 6.87718784704522 
147 1 1 42.82226060228861 11.794653914869263 7.119681616482846 
148 1 1 42.599264022086366 12.260180433357432 7.362175385920473 
149 1 1 42.37626744188413 12.7257069518456 7.604669155358099 
150 1 1 42.15327086168189 13.191233470333769 7.847162924795726 
151 1 1 41.89894232999918 13.413703172035973 7.401032826929357 
152 1 1 41.64461379831646 13.636172873738177 6.9549027290629875 
153 1 1 41.390285266633754 13.85864257544038 6.508772631196617 
154 1 1 41.13595673495104 14.081112277142584 6.062642533330248 
155 1 1 40.88162820326833 14.303581978844788 5.6165124354638785 
156 1 1 40.492253595504 14.667618514543399 5.462906562058634 
157 1 1 40.10287898773968 15.031655050242009 5.30930068865339 
158 1 1 39.71350437997536 15.39569158594062 5.155694815248145 
159 1 1 39.32412977221104 15.75972812163923 5.002088941842901 
160 1 1 38.93475516444671 16.12376465733784 4.848483068437656 
161 2 2 38.40746842767088 16.160938823164486 5.0499443064432645 
162 2 2 37.88018169089504 16.19811298899113 5.251405544448873 
163 2 2 37.3528949541192 16.23528715481778 5.45286678245448 
164 1 1 36.825608217343365 16.272461320644425 5.654328020460088 
165 1 1 36.29832148056753 16.30963548647107 5.8557892584656965 
166 1 1 35.84840434839266 15.917767680919333 5.832381277189181 
167 1 1 35.398487216217795 15.525899875367596 5.808973295912666 
168 1 1 34.94857008404292 15.13403206981586 5.78556531463615 
169 1 1 34.49865295186805 14.742164264264122 5.762157333359635 
170 1 1 34.048735819693185 14.350296458712386 5.738749352083119 
171 1 1 33.95699728493248 14.443733091146369 5.126132818360448 
172 1 1 33.86525875017177 14.537169723580352 4.5135162846377765 
173 1 1 33.77352021541106 14.630606356014336 3.9008997509151047 
174 1 1 33.68178168065035 14.72404298844832 3.288283217192433 
175 1 1 33.590043145889645 14.817479620882303 2.6756666834697618 
176 1 1 33.11877271190854 14.62660850005097 2.910551113747025 
177 1 1 32.64750227792744 14.435737379219637 3.1454355440242883 
178 1 1 32.176231843946326 14.244866258388305 3.3803199743015515 
179 1 1 31.70496140996522 14.05399513755697 3.6152044045788148 
180 1 1 31.233690975984118 13.863124016725639 3.850088834856078 
181 1 1 31.201692565236026 13.582105368901821 3.393786754642765 
182 1 1 31.169694154487935 13.301086721078004 2.9374846744294523 
183 1 1 31.137695743739844 13.020068073254185 2.481182594216139 
184 1 1 31.105697332991753 12.739049425430368 2.024880514002826 
185 1 1 31.07369892224366 12.45803077760655 1.5685784337895134 
186 1 1 31.192820348205093 13.003805975556624 1.290022624110469 
187 1 1 31.311941774166524 13.549581173506697 1.011466814431425 
188 1 1 31.43106320012795 14.09535637145677 0.7329110047523806 
189 1 1 31.550184626089383 14.641131569406843 0.4543551950733362 
190 1 1 31.669306052050814 15.186906767356916 0.17579938539429185 
191 1 1 31.58094418942769 15.414354651448942 -0.4417513114451469 
192 1 1 31.492582326804566 15.64180253554097 -1.0593020082845856 
193 1 1 31.40422046418144 15.869250419632996 -1.6768527051240245 
194 1 1 31.315858601558315 16.096698303725024 -2.2944034019634634 
195 1 1 31.22749673893519 16.32414618781705 -2.911954098802902 
196 1 1 30.7565256916817 16.05720966606915 -3.270768283332863 
197 1 1 30.28555464442821 15.790273144321246 -3.629582467862824 
198 1 1 29.814583597174718 15.523336622573344 -3.988396652392785 
199 1 1 29.34361254992123 15.256400100825442 -4.347210836922746 
200 1 1 28.872641502667737 14.98946357907754 -4.706025021452707 
201 2 2 28.390399137492743 14.924131218647316 -4.477025661369018 
202 2 2 27.90815677231775 14.858798858217094 -4.2480263012853285 
203 2 2 27.425914407142752 14.79346649778687 -4.0190269412016395 
204 1 1 26.94367204196776 14.728134137356648 -3.7900275811179505 
205 1 1 26.461429676792765 14.662801776926424 -3.5610282210342614 
206 1 1 26.399157711079685 14.296685568678608 -3.152530087728454 
207 1 1 26.3368857453666 13.930569360430793 -2.744031954422647 
208 1 1 26.27461377965352 13.564453152182978 -2.3355338211168393 
209 1 1 26.212341813940437 13.198336943935162 -1.927035687811032 
210 1 1 26.150069848227357 12.832220735687347 -1.5185375545052247 
211 1 1 26.568843680017757 12.733108067786922 -1.2137725429389843 
212 1 1 26.987617511808157 12.633995399886496 -0.909007531372744 
213 1 1 27.406391343598557 12.534882731986071 -0.6042425198065038 
214 1 1 27.825165175388957 12.435770064085645 -0.2994775082402634 
215 1 1 28.243939007179357 12.33665739618522 0.005287503325976984 
216 1 1 27.879447577300333 12.061248535559242 0.21824208323902422 
217 1 1 27.51495614742131 11.785839674933262 0.43119666315207145 
218 1 1 27.150464717542285 11.510430814307284 0.6441512430651186 
219 1 1 26.78597328766326 11.235021953681304 0.8571058229781658 
220 1 1 26.421481857784237 10.959613093055326 1.070060402891213 
221 1 1 26.95764904195914 10.743227147711059 1.2084510816241842 
222 1 1 27.493816226134044 10.526841202366793 1.3468417603571554 
223 1 1 28.029983410308947 10.310455257022525 1.4852324390901266 
224 1 1 28.56615059448385 10.09406931167826 1.6236231178230978 
225 1 1 29.102317778658755 9.877683366333992 1.762013796556069 
226 1 1 28.772888726420476 9.806626946220314 2.119478164038977 
227 1 1 28.443459674182197 9.735570526106637 2.476942531521885 
228 1 1 28.114030621943915 9.66451410599296 2.834406899004793 
229 1 1 27.784601569705636 9.593457685879283 3.191871266487701 
230 1 1 27.455172517467357 9.522401265765605 3.549335633970609 
231 1 1 27.32978609642016 9.187778319516752 3.0407133057296667 
232 1 1 27.204399675372965 8.853155373267898 2.532090977488725 
233 1 1 27.07901325432577 8.518532427019043 2.0234686492477825 
234 1 1 26.953626833278573 8.18390948077019 1.5148463210068401 
235 1 1 26.828240412231377 7.849286534521336 1.0062239927658978 
236 1 1 26.45058256180684 7.499444173869642 0.8368949859428163 
237 1 1 26.072924711382303 7.149601813217948 0.6675659791197347 
238 1 1 25.695266860957762 6.799759452566254 0.4982369722966531 
239 1 1 25.317609010533225 6.44991709191456 0.3289079654735716 
240 1 1 24.939951160108688 6.100074731262866 0.15957895865049 
241 2 2 24.893462024896753 5.652526297260757 -0.17896257802053978 
242 2 2 24.846972889684817 5.204977863258649 -0.5175041146915695 
243 2 2 24.800483754472882 4.7574294292565416 -0.8560456513625992 
244 1 1 24.753994619260947 4.309880995254433 -1.194587188033629 
245 1 1 24.707505484049012 3.862332561252325 -1.5331287247046588 
246 1 1 25.068739555857793 3.4790843456960627 -1.4697527881389638 
247 1 1 25.429973627666573 3.0958361301398005 -1.4063768515732686 
248 1 1 25.791207699475354 2.7125879145835383 -1.3430009150075737 
249 1 1 26.152441771284135 2.329339699027276 -1.2796249784418787 
250 1 1 26.513675843092916 1.946091483471014 -1.2162490418761835 
251 1 1 26.813607865244155 1.6250682040347568 -0.9400336398346404 
252 1 1 27.11353988739539 1.3040449245984997 -0.6638182377930972 
253 1 1 27.41347190954663 0.9830216451622427 -0.3876028357515541 
254 1 1 27.713403931697865 0.6619983657259856 -0.11138743371001092 
255 1 1 28.013335953849104 0.34097508628972856 0.1648279683315322 
256 1 1 28.40053427322284 0.042239617240036276 0.05130067843873928 
257 1 1 28.787732592596573 -0.256495851809656 -0.06222661145405364 
258 1 1 29.174930911970307 -0.5552313208593482 -0.17575390134684657 
259 1 1 29.56212923134404 -0.8539667899090406 -0.28928119123963947 
260 1 1 29.949327550717776 -1.152702258958733 -0.4028084811324324 
261 1 1 30.35690114052351 -0.865100563650112 -0.5719545230380605 
262 1 1 30.76447473032925 -0.577498868341491 -0.7411005649436885 
263 1 1 31.172048320134987 -0.28989717303287 -0.9102466068493165 
264 1 1 31.579621909940727 -0.0022954777242489843 -1.0793926487549446 
265 1 1 31.987195499746463 0.28530621758437197 -1.2485386906605727 
266 1 1 32.10257718451385 -0.31130301450443815 -1.2107857190234061 
267 1 1 32.21795886928123 -0.9079122465932483 -1.1730327473862396 
268 1 1 32.33334055404862 -1.5045214786820584 -1.135279775749073 
269 1 1 32.448722238816 -2.1011307107708683 -1.0975268041119064 
270 1 1 32.56410392358339 -2.697739942859678 -1.0597738324747399 
271 1 1 32.878050023331326 -2.9064848230387366 -0.6279620657212411 
272 1 1 33.191996123079264 -3.115229703217795 -0.1961502989677424 
273 1 1 33.5059422228272 -3.3239745833968533 0.23566146778575647 
274 1 1 33.81988832257514 -3.532719463575911 0.6674732345392551 
275 1 1 34.133834422323076 -3.7414643437549695 1.0992850012927537 
276 1 1 34.315701923096604 -4.014189082669546 1.5553389506005368 
277 1 1 34.497569423870125 -4.286913821584122 2.01139289990832 
278 1 1 34.67943692464365 -4.559638560498698 2.4674468492161035 
279 1 1 34.861304425417174 -4.832363299413274 2.9235007985238863 
280 1 1 35.0431719261907 -5.10508803832785 3.3795547478316696 
281 2 2 35.21195450618463 -4.592540943103109 3.4287083021903806 
282 2 2 35.38073708617856 -4.079993847878368 3.4778618565490915 
283 2 2 35.54951966617249 -3.5674467526536286 3.527015410907803 
284 1 1 35.718302246166424 -3.054899657428888 3.576168965266514 
285 1 1 35.887084826160354 -2.542352562204148 3.625322519625225 
286 1 1 35.569982249567495 -2.4191110801023785 4.138403643049862 
287 1 1 35.252879672974636 -2.2958695980006096 4.651484766474499 
288 1 1 34.935777096381784 -2.1726281158988403 5.164565889899136 
289 1 1 34.618674519788925 -2.049386633797071 5.677647013323773 
290 1 1 34.301571943196066 -1.9261451516953019 6.19072813674841 
291 1 1 34.10317914886631 -1.488280205139343 6.486448365603154 
292 1 1 33.904786354536554 -1.0504152585833837 6.782168594457898 
293 1 1 33.70639356020679 -0.6125503120274247 7.077888823312643 
294 1 1 33.508000765877036 -0.17468536547146574 7.373609052167388 
295 1 1 33.30960797154728 0.26317958108449313 7.669329281022132 
296 1 1 33.55871677382048 0.7136342637557136 7.689310835910436 
297 1 1 33.80782557609367 1.164088946426934 7.709292390798739 
298 1 1 34.05693437836687 1.6145436290981543 7.7292739456870425 
299 1 1 34.30604318064006 2.064998311769375 7.749255500575345 
300 1 1 34.55515198291326 2.515452994440595 7.769237055463649 
301 1 1 34.2564729436146 2.915570576757042 7.742034217665222 
302 1 1 33.957793904315935 3.3156881590734884 7.714831379866795 
303 1 1 33.65911486501727 3.7158057413899352 7.687628542068368 
304 1 1 33.36043582571861 4.115923323706382 7.660425704269941 
305 1 1 33.06175678641995 4.516040906022829 7.633222866471514 
306 1 1 33.46399668969582 4.6684704537238755 7.243636573954838 
307 1 1 33.86623659297169 4.820900001424922 6.854050281438161 
308 1 1 34.268476496247565 4.973329549125968 6.4644639889214845 
309 1 1 34.670716399523435 5.125759096827015 6.074877696404808 
310 1 1 35.072956302799305 5.278188644528062 5.685291403888131 
311 1 1 35.06733188578545 5.747789210653236 5.959439266437019 
312 1 1 35.06170746877159 6.217389776778411 6.233587128985906 
313 1 1 35.05608305175773 6.686990342903585 6.507734991534795 
314 1 1 35.05045863474387 7.156590909028759 6.781882854083682 
315 1 1 35.04483421773001 7.626191475153934 7.05603071663257 
316 1 1 35.58906331167645 7.534069041406271 7.24750223191441 
317 1 1 36.133292405622875 7.441946607658608 7.43897374719625 
318 1 1 36.67752149956931 7.349824173910943 7.63044526247809 
319 1 1 37.221750593515736 7.25770174016328 7.821916777759929 
320 1 1 37.76597968746217 7.165579306415617 8.01338829304177 
321 2 2 37.75281100942074 7.1987205904517255 8.558026885152993 
322 2 2 37.73964233137931 7.2318618744878345 9.102665477264217 
323 2 2 37.726473653337884 7.2650031585239425 9.64730406937544 
324 1 1 37.71330497529645 7.2981444425600515 10.191942661486664 
325 1 1 37.70013629725502 7.33128572659616 10.736581253597889 
326 1 1 37.30595137838742 7.641873010872477 11.132095360964037 
327 1 1 36.91176645951981 7.952460295148793 11.527609468330185 
328 1 1 36.51758154065221 8.263047579425109 11.923123575696334 
329 1 1 36.1233966217846 8.573634863701425 12.31863768306248 
330 1 1 35.729211702917 8.884222147977741 12.714151790428629 
331 1 1 35.33905850405865 9.19928902969512 12.527697235072335 
332 1 1 34.9489053052003 9.514355911412498 12.341242679716041 
333 1 1 34.558752106341956 9.829422793129876 12.154788124359747 
334 1 1 34.168598907483606 10.144489674847254 11.968333569003454 
335 1 1 33.778445708625256 10.459556556564632 11.78187901364716 
336 1 1 33.9293753035664 10.89247508200731 11.551753588635313 
337 1 1 34.080304898507556 11.32539360744999 11.321628163623464 
338 1 1 34.2312344934487 11.75831213289267 11.091502738611617 
339 1 1 34.38216408838986 12.19123065833535 10.861377313599768 
340 1 1 34.533093683331 12.624149183778028 10.63125188858792 
341 1 1 34.2233597789107 12.952981516974072 10.326526876081925 
342 1 1 33.9136258744904 13.281813850170115 10.02180186357593 
343 1 1 33.603891970070094 13.610646183366159 9.717076851069935 
344 1 1 33.294158065649796 13.939478516562202 9.412351838563941 
345 1 1 32.98442416122949 14.268310849758246 9.107626826057945 
346 1 1 33.17236985685201 14.751761403401266 8.837211867666388 
347 1 1 33.360315552474525 15.235211957044287 8.566796909274832 
348 1 1 33.54826124809705 15.71866251068731 8.296381950883275 
349 1 1 33.736206943719566 16.20211306433033 8.025966992491718 
350 1 1 33.92415263934208 16.68556361797335 7.755552034100161 
351 1 1 33.44242668207443 16.76198089182385 7.9142631114491975 
352 1 1 32.96070072480676 16.83839816567435 8.072974188798234 
353 1 1 32.47897476753911 16.914815439524848 8.23168526614727 
354 1 1 31.997248810271447 16.991232713375346 8.390396343496308 
355 1 1 31.515522853003787 17.067649987225845 8.549107420845344 
356 1 1 31.43903482971569 16.702921299057635 8.181745450440275 
357 1 1 31.3625468064276 16.338192610889426 7.8143834800352066 
358 1 1 31.286058783139502 15.973463922721216 7.4470215096301375 
359 1 1 31.20957075985141 15.608735234553006 7.079659539225069 
360 1 1 31.133082736563313 15.244006546384796 6.71229756882 
361 2 2 30.624908134495602 15.436515761484817 6.783746437318332 
362 2 2 30.11673353242789 15.629024976584837 6.855195305816664 
363 2 2 29.60855893036018 15.821534191684858 6.926644174314995 
364 1 1 29.100384328292467 16.01404340678488 6.998093042813327 
365 1 1 28.592209726224755 16.2065526218849 7.069541911311658 
366 1 1 28.626108716804996 16.106515916947085 6.574144900930386 
367 1 1 28.660007707385237 16.00647921200927 6.0787478905491135 
368 1 1 28.69390669796548 15.906442507071457 5.583350880167842 
369 1 1 28.727805688545722 15.806405802133643 5.08795386978657 
370 1 1 28.761704679125963 15.706369097195829 4.592556859405297 
371 1 1 28.240825558488094 15.607503829659207 4.516216501768926 
372 1 1 27.719946437850226 15.508638562122583 4.439876144132555 
373 1 1 27.19906731721236 15.40977329458596 4.363535786496183 
374 1 1 26.678188196574492 15.310908027049337 4.287195428859811 
375 1 1 26.157309075936624 15.212042759512714 4.21085507122344 
376 1 1 25.64268590209739 15.142456300050211 4.412420044124352 
377 1 1 25.128062728258158 15.072869840587709 4.613985017025265 
378 1 1 24.61343955441892 15.003283381125204 4.815549989926177 
379 1 1 24.098816380579688 14.933696921662701 5.01711496282709 
380 1 1 23.584193206740455 14.864110462200198 5.2186799357280025 
381 1 1 23.530942732654793 14.89099436365904 4.705018069188939 
382 1 1 23.477692258569135 14.917878265117881 4.191356202649876 
383 1 1 23.424441784483474 14.944762166576725 3.6776943361108128 
384 1 1 23.371191310397815 14.971646068035566 3.164032469571749 
385 1 1 23.317940836312154 14.998529969494408 2.650370603032686 
386 1 1 22.892286865814434 15.222930962975834 2.3601829857669014 
387 1 1 22.46663289531671 15.447331956457262 2.0699953685011168 
388 1 1 22.04097892481899 15.671732949938688 1.7798077512353319 
389 1 1 21.615324954321267 15.896133943420116 1.4896201339695472 
390 1 1 21.189670983823547 16.120534936901542 1.1994325167037625 
391 1 1 20.77745442088411 16.346059086179096 1.4258447447331468 
392 1 1 20.365237857944667 16.571583235456647 1.652256972762531 
393 1 1 19.95302129500523 16.7971073847342 1.8786692007919152 
394 1 1 19.540804732065787 17.02263153401175 2.1050814288212996 
395 1 1 19.12858816912635 17.248155683289305 2.3314936568506837 
396 1 1 18.794924241360683 16.790059617081777 2.473926933881913 
397 1 1 18.461260313595012 16.331963550874246 2.6163602109131427 
398 1 1 18.127596385829346 15.873867484666718 2.7587934879443727 
399 1 1 17.793932458063676 15.41577141845919 2.9012267649756023 
400 1 1 17.46026853029801 14.95767535225166 3.043660042006832 
401 2 2 17.658103694762165 14.89584382989551 2.55275963497473 
402 2 2 17.85593885922632 14.834012307539357 2.0618592279426284 
403 2 2 18.053774023690476 14.772180785183206 1.5709588209105272 
404 1 1 18.25160918815463 14.710349262827053 1.0800584138784255 
405 1 1 18.449444352618787 14.648517740470902 0.5891580068463239 
406 1 1 18.358121668027593 14.489241676368955 0.05260591734556652 
407 1 1 18.266798983436402 14.329965612267008 -0.48394617215519087 
408 1 1 18.175476298845208 14.170689548165061 -1.0204982616559484 
409 1 1 18.084153614254017 14.011413484063114 -1.5570503511567058 
410 1 1 17.992830929662823 13.852137419961167 -2.093602440657463 
411 1 1 17.95816558145029 13.7440747198259 -2.6764527096497144 
412 1 1 17.92350023323776 13.636012019690634 -3.2593029786419656 
413 1 1 17.88883488502523 13.527949319555367 -3.842153247634217 
414 1 1 17.854169536812698 13.419886619420101 -4.425003516626468 
415 1 1 17.819504188600167 13.311823919284834 -5.007853785618719 
416 1 1 18.208670004499517 13.060102081737908 -5.350780715195644 
417 1 1 18.597835820398863 12.808380244190984 -5.693707644772569 
418 1 1 18.987001636298213 12.556658406644058 -6.036634574349495 
419 1 1 19.37616745219756 12.304936569097134 -6.37956150392642 
420 1 1 19.76533326809691 12.053214731550208 -6.7224884335033455 
421 1 1 19.83139921653627 12.561247136749884 -6.8570395699753215 
422 1 1 19.897465164975625 13.06927954194956 -6.991590706447297 
423 1 1 19.963531113414984 13.577311947149237 -7.126141842919273 
424 1 1 20.02959706185434 14.085344352348914 -7.260692979391248 
425 1 1 20.0956630102937 14.59337675754859 -7.395244115863224 
426 1 1 20.520587088607964 14.369323163314148 -7.697944707029915 
427 1 1 20.94551116692223 14.145269569079705 -8.000645298196607 
428 1 1 21.370435245236493 13.921215974845264 -8.3033458893633 
429 1 1 21.79535932355076 13.697162380610822 -8.60604648052999 
430 1 1 22.220283401865025 13.473108786376379 -8.908747071696682 
431 1 1 22.149430302894498 12.940749328359427 -8.866040572681992 
432 1 1 22.078577203923974 12.408389870342473 -8.823334073667302 
433 1 1 22.007724104953446 11.876030412325521 -8.780627574652613 
434 1 1 21.936871005982923 11.343670954308568 -8.737921075637923 
435 1 1 21.866017907012395 10.811311496291616 -8.695214576623233 
436 1 1 21.8906754428937 10.567025077484665 -8.243244192546275 
437 1 1 21.915332978775 10.322738658677714 -7.791273808469317 
438 1 1 21.9399905146563 10.078452239870762 -7.339303424392359 
439 1 1 21.964648050537605 9.834165821063811 -6.887333040315401 
440 1 1 21.989305586418908 9.58987940225686 -6.435362656238443 
441 2 2 22.403111446644584 9.385463021640177 -6.770173320574067 
442 2 2 22.81691730687026 9.181046641023496 -7.1049839849096905 
443 2 2 23.230723167095935 8.976630260406813 -7.439794649245314 
444 1 1 23.64452902732161 8.772213879790131 -7.774605313580938 
445 1 1 24.058334887547286 8.567797499173448 -8.109415977916562 
446 1 1 23.56948232826464 8.363216054793293 -8.262272537918996 
447 1 1 23.080629768981996 8.158634610413136 -8.415129097921428 
448 1 1 22.591777209699355 7.954053166032981 -8.567985657923861 
449 1 1 22.10292465041671 7.749471721652826 -8.720842217926293 
450 1 1 21.614072091134066 7.54489027727267 -8.873698777928727 
451 1 1 21.34866872526406 7.383902632997132 -8.422844821381842 
452 1 1 21.08326535939405 7.222914988721593 -7.9719908648349564 
453 1 1 20.817861993524048 7.061927344446055 -7.521136908288071 
454 1 1 20.55245862765404 6.9009397001705155 -7.070282951741186 
455 1 1 20.287055261784033 6.739952055894977 -6.6194289951943 
456 1 1 20.83398880431964 6.690670849720909 -6.476555738035784 
457 1 1 21.380922346855254 6.641389643546839 -6.333682480877268 
458 1 1 21.927855889390862 6.5921084373727705 -6.190809223718752 
459 1 1 22.474789431926474 6.542827231198701 -6.047935966560236 