LAMMPS data file via write_data, version 20 Nov 2019, timestep = 400100

2400 atoms
5 atom types
2400 bonds
5 bond types
2400 angles
2 angle types

-7.0857172415554501e+01 7.0857172415554501e+01 xlo xhi
-3.5428586207777251e+01 3.5428586207777251e+01 ylo yhi
-3.5428586207777251e+01 3.5428586207777251e+01 zlo zhi

Masses

1 1
2 1
3 2
4 2
5 2

Pair Coeffs # lj/cut

1 15 1
2 15 1
3 15 1
4 15 1
5 15 1

Bond Coeffs # fene

1 30 1.5 1 1
2 30 1.5 1 1
3 30 1.5 1 1
4 30 1.5 1 1
5 30 2 1.5 1.5

Angle Coeffs # harmonic

1 1 10
2 12 40

Atoms # angle

1435 1 1 -1.1295254867836800e+01 -9.8197326710578512e+00 -1.4893799651877256e+01 0 0 0
1436 1 1 -1.1858429597193986e+01 -9.0040533427828873e+00 -1.5192939993357950e+01 0 0 0
2208 1 1 1.3716753270029670e+01 -8.8699298858252860e+00 -1.5354809660392174e+01 0 0 0
2207 1 1 1.4593587535431904e+01 -8.8969008068101729e+00 -1.4985486141845001e+01 0 0 0
1369 1 1 -1.1612168103342812e+01 -8.0275797673745473e+00 -1.5662371767253397e+01 0 0 0
1398 1 1 -1.2322199400103697e+01 -7.8342306751500166e+00 -1.4861532796124981e+01 0 0 0
1437 1 1 -1.0972744257924441e+01 -8.7592528625210573e+00 -1.5099595143886990e+01 0 0 0
1439 1 1 -9.6852284292622777e+00 -7.7793395099018214e+00 -1.4994750282667241e+01 0 0 0
1367 1 1 -1.0577384842934661e+01 -7.7391036986480808e+00 -1.5574473980376762e+01 0 0 0
1438 1 1 -1.0122335163431085e+01 -8.5920095152469376e+00 -1.4911501837337871e+01 0 0 0
1440 1 1 -9.0375939918631083e+00 -8.4517052754160691e+00 -1.4976488733112008e+01 0 0 0
1519 1 1 -8.6259150440205357e+00 -7.5148082251259156e+00 -1.5299675724025215e+01 0 0 0
1517 1 1 -7.5665266783989544e+00 -7.2466586131468587e+00 -1.5433656101434019e+01 0 0 0
1534 1 1 -5.5301584335576672e+00 -7.8770233528572513e+00 -1.4910018981211589e+01 0 0 0
1536 1 1 -6.5851322784683237e+00 -7.4123789266951432e+00 -1.5007284652532856e+01 0 0 0
2215 1 1 1.3348807442410061e+01 -7.8766089413030844e+00 -1.5556313815500985e+01 0 0 0
2214 1 1 1.3033999562347477e+01 -7.5339934766095409e+00 -1.4784564355148760e+01 0 0 0
2206 1 1 1.4460405362778875e+01 -8.1026957799679220e+00 -1.5564484299597625e+01 0 0 0
2205 1 1 1.5099429349096839e+01 -7.9553864333331115e+00 -1.4840837841635103e+01 0 0 0
1371 1 1 -1.2482353489432558e+01 -6.7551717396943038e+00 -1.5168342701164457e+01 0 0 0
1368 1 1 -1.1176435240340087e+01 -7.3040029259890034e+00 -1.6145735283234306e+01 0 0 0
1370 1 1 -1.2236592248083923e+01 -7.3826500753653983e+00 -1.5867593038361422e+01 0 0 0
1365 1 1 -1.1399454389240949e+01 -7.1569362071023086e+00 -1.5097448767124316e+01 0 0 0
1373 1 1 -1.1751700511465804e+01 -6.3744724397963708e+00 -1.5841494255559992e+01 0 0 0
9 1 1 1.3256336774439221e+01 -1.9076069293215898e+00 -5.7191580964106503e+00 0 0 0
1375 1 1 -1.0196904974911282e+01 -6.8788217269165992e+00 -1.6295625920591988e+01 0 0 0
1366 1 1 -1.0422658488647631e+01 -6.8968759754661200e+00 -1.5202649722208205e+01 0 0 0
1374 1 1 -1.0829838232362521e+01 -6.2638548894111628e+00 -1.5930808515413023e+01 0 0 0
1377 1 1 -9.7505022157247385e+00 -6.1147491986394122e+00 -1.5588014840388031e+01 0 0 0
1376 1 1 -9.4852780737664943e+00 -7.0300875436412911e+00 -1.5753138380523186e+01 0 0 0
1518 1 1 -8.4366335415233102e+00 -6.6070030570644596e+00 -1.5534263114651704e+01 0 0 0
1478 1 1 -8.8920287994360692e+00 -5.9599434026291505e+00 -1.4702054612629277e+01 0 0 0
1516 1 1 -7.1591448696524917e+00 -6.4775276328688411e+00 -1.5175671933848109e+01 0 0 0
2216 1 1 1.3249962263100429e+01 -6.9353587984581830e+00 -1.5623394743400294e+01 0 0 0
2204 1 1 1.5174188934961565e+01 -7.2828242295866383e+00 -1.5499877426345975e+01 0 0 0
2217 1 1 1.4119616720682711e+01 -7.1456660845465167e+00 -1.5878445283545549e+01 0 0 0
2218 1 1 1.4065884462718699e+01 -7.2189784339673375e+00 -1.4949025162800506e+01 0 0 0
2250 1 1 1.3782711920240454e+01 -2.8244564028030212e+00 -5.4794247010830199e+00 0 0 0
1372 1 1 -1.2180623105684273e+01 -5.8221378889804294e+00 -1.5164770903125159e+01 0 0 0
1379 1 1 -1.1104086306381509e+01 -4.9865238038825614e+00 -1.4879376039516909e+01 0 0 0
1378 1 1 -1.0401893081929556e+01 -5.3812447964964178e+00 -1.5372349461756135e+01 0 0 0
299 1 1 1.2221933000691971e+01 -1.6022283635935712e+00 -5.3358863283173719e+00 0 0 0
1193 1 1 -1.0683279412729700e+01 -3.8791466361902978e+00 -1.4938365622167597e+01 0 0 0
1351 1 1 -1.3531286667820909e+01 -2.4648609168096201e+00 -1.5150730640924344e+01 0 0 0
1352 1 1 -1.3739034129139293e+01 -1.6439713502584148e+00 -1.5608920811576530e+01 0 0 0
1349 1 1 -1.2714032044294374e+01 -1.7261231727189823e+00 -1.5194834083604745e+01 0 0 0
1347 1 1 -1.2520410777866205e+01 -2.7940287203911627e+00 -1.4980060142272121e+01 0 0 0
1191 1 1 -1.1389206089739689e+01 -2.9028647736703110e+00 -1.4928158346469662e+01 0 0 0
1348 1 1 -1.2048662099947002e+01 -2.2351356797720223e+00 -1.5588857292718915e+01 0 0 0
1190 1 1 -1.1170501494547326e+01 -1.9305414289292460e+00 -1.4962725630543654e+01 0 0 0
1353 1 1 -1.3557515757811588e+01 -1.0597684545065085e+00 -1.4902104672006363e+01 0 0 0
1189 1 1 -1.1817588691871251e+01 -1.2509774693681235e+00 -1.4780409073852848e+01 0 0 0
1432 1 1 -1.2711977763359775e+01 -1.0462936479980913e+01 -1.3586043833674543e+01 0 0 0
1454 1 1 -1.1252090192308167e+01 -1.0949264074902535e+01 -1.4682482325997784e+01 0 0 0
1455 1 1 -1.2023422173246052e+01 -1.0532023161883465e+01 -1.4441043587944389e+01 0 0 0
1431 1 1 -1.1808829052314106e+01 -1.0958596000290967e+01 -1.3438241618305961e+01 0 0 0
1453 1 1 -1.0304636109665003e+01 -1.0648942871624582e+01 -1.4364067119334891e+01 0 0 0
1452 1 1 -1.0772640693306643e+01 -1.1041121468815268e+01 -1.3645636103187311e+01 0 0 0
1451 1 1 -9.9621266599760023e+00 -1.1191429592821866e+01 -1.3246005765384519e+01 0 0 0
1457 1 1 -1.3064156354759492e+01 -9.4528535631835648e+00 -1.3824344791868914e+01 0 0 0
1456 1 1 -1.2335248926778293e+01 -9.6767265083198755e+00 -1.4515097170666150e+01 0 0 0
1433 1 1 -1.1924092191275697e+01 -9.8802753970206769e+00 -1.3531936272938028e+01 0 0 0
1434 1 1 -1.1164326688090666e+01 -1.0053165588817221e+01 -1.3996833072157749e+01 0 0 0
301 2 2 1.1472214463584173e+01 -2.2341320849614315e+00 -4.8526115816965953e+00 0 0 0
300 1 1 1.1484740012932265e+01 -1.9145507516179148e+00 -5.7331569592090705e+00 0 0 0
1446 1 1 -1.0210304642147021e+01 -1.0138803773677258e+01 -1.3453336068559112e+01 0 0 0
627 1 1 -3.8155037465277233e+00 3.0488771511445738e+00 -2.8222467487934009e+00 0 0 0
1441 2 2 -9.2859243718574405e+00 -9.1967090899193256e+00 -1.4521826131619537e+01 0 0 0
1442 2 2 -9.3453556666340045e+00 -1.0083026402724267e+01 -1.4148424651065087e+01 0 0 0
1443 1 1 -8.6225534709477216e+00 -9.5465746491252972e+00 -1.3565632374729919e+01 0 0 0
630 1 1 -2.1916477191562205e+00 3.6488208299255471e+00 -3.3273385848577108e+00 0 0 0
1524 1 1 -7.5027735342600774e+00 -9.6266219264399044e+00 -1.3844910051349158e+01 0 0 0
1530 1 1 -6.4040660096078330e+00 -9.8122192585079269e+00 -1.3610252703494101e+01 0 0 0
1531 1 1 -5.6675548828320066e+00 -9.3060288126307888e+00 -1.3564453401632353e+01 0 0 0
1532 1 1 -5.8776028818729289e+00 -8.9798317136157042e+00 -1.4409872932348293e+01 0 0 0
2210 1 1 1.3793234924848829e+01 -9.0726149951072195e+00 -1.4257223894790084e+01 0 0 0
1396 1 1 -1.3229932171783030e+01 -8.2975367542137803e+00 -1.3821611888302069e+01 0 0 0
1397 1 1 -1.2565119051165254e+01 -8.6289271254648661e+00 -1.4404608364338637e+01 0 0 0
1399 1 1 -1.1514568901006250e+01 -8.0480981699996672e+00 -1.4525517271064077e+01 0 0 0
1420 1 1 -1.2276009353744529e+01 -7.8348416704855133e+00 -1.3729945977445634e+01 0 0 0
629 1 1 -3.1057185694765441e+00 3.8725857657195810e+00 -3.1423876339021928e+00 0 0 0
1400 1 1 -1.0666220798668423e+01 -7.6841753482169119e+00 -1.4500002625775725e+01 0 0 0
863 1 1 -2.8318449366234422e+00 4.1222940265129866e+00 -4.1605786551122614e+00 0 0 0
1481 2 2 -1.0230843016232132e+01 -7.5540306843996161e+00 -1.3361871679700396e+01 0 0 0
862 2 2 -2.6640974858731070e+00 3.2356978322082051e+00 -4.1572262482500824e+00 0 0 0
1522 2 2 -8.6196228714826972e+00 -8.4747541859594318e+00 -1.3861172367469681e+01 0 0 0
1521 2 2 -8.8415915074876050e+00 -7.6522074611394535e+00 -1.4280723051611353e+01 0 0 0
1520 1 1 -8.0864904472140324e+00 -7.9813562734890784e+00 -1.4679469651422785e+01 0 0 0
302 2 2 1.1401938700387923e+01 -3.0113108054876743e+00 -5.3284028748848273e+00 0 0 0
1523 1 1 -7.7211812725488089e+00 -8.6926157041567258e+00 -1.3745117815412989e+01 0 0 0
1562 2 2 -6.9496031081070599e+00 -7.9086498032450425e+00 -1.3529979481458890e+01 0 0 0
628 1 1 -3.5886811259584248e+00 3.3851101174744027e+00 -3.6827478701796741e+00 0 0 0
1563 1 1 -6.6604184968869493e+00 -8.7173896901502541e+00 -1.3719618266775454e+01 0 0 0
1564 1 1 -5.9105494771200320e+00 -8.2666465258025070e+00 -1.3372435083570364e+01 0 0 0
1535 1 1 -6.1979562151493122e+00 -7.8147951499569652e+00 -1.4270382177016216e+01 0 0 0
1533 1 1 -5.2136633228397571e+00 -8.3072311049006800e+00 -1.4198513790682028e+01 0 0 0
2209 1 1 1.3078092420218402e+01 -8.6530668570785458e+00 -1.4667644856539640e+01 0 0 0
2220 1 1 1.3696538234107008e+01 -8.0106592369409064e+00 -1.3801756302125550e+01 0 0 0
2212 1 1 1.2961245307319835e+01 -8.7583749420906418e+00 -1.3617232919992141e+01 0 0 0
2213 1 1 1.2620225912081230e+01 -7.8975794823188235e+00 -1.4008126170980125e+01 0 0 0
2219 1 1 1.3977525818835359e+01 -8.0674350395360204e+00 -1.4625299506987686e+01 0 0 0
2120 1 1 1.4718511137695257e+01 -8.4901118364340640e+00 -1.3961648651375274e+01 0 0 0
864 1 1 -3.7430294127703245e+00 4.4025238792643462e+00 -4.0434258523486521e+00 0 0 0
2121 2 2 1.5531650159206963e+01 -7.9618013619418013e+00 -1.3804934657259857e+01 0 0 0
1419 1 1 -1.2924335717960378e+01 -7.3296455179892712e+00 -1.4159085182799537e+01 0 0 0
1363 1 1 -1.2369211700862087e+01 -6.2949742107431037e+00 -1.4170657788658975e+01 0 0 0
1364 1 1 -1.1824763451377025e+01 -6.9989304598849200e+00 -1.4314342435492094e+01 0 0 0
865 1 1 -4.5080089796839209e+00 3.8173210277482426e+00 -4.0371954009458193e+00 0 0 0
1401 2 2 -1.0763822624647247e+01 -6.8325526551675395e+00 -1.4192613211745591e+01 0 0 0
1480 1 1 -9.8086523357287412e+00 -7.2241058924155839e+00 -1.4101255234793410e+01 0 0 0
1402 2 2 -1.0293195713220193e+01 -6.2455169742029399e+00 -1.3580430890615251e+01 0 0 0
866 1 1 -4.9755549196434226e+00 3.4687918998077505e+00 -3.3098398336524277e+00 0 0 0
1479 1 1 -9.3142830982005584e+00 -6.7798062850690570e+00 -1.4701311642662965e+01 0 0 0
867 1 1 -5.7285205770960905e+00 3.8668023390213562e+00 -3.8980859848762277e+00 0 0 0
303 1 1 1.0499063971997234e+01 -2.6208078300713789e+00 -5.1772392459536514e+00 0 0 0
1540 1 1 -8.2663751808801162e+00 -5.9240396097664689e+00 -1.3823699475081373e+01 0 0 0
1537 1 1 -7.1869433273002024e+00 -7.2475320537285786e+00 -1.4381122168917701e+01 0 0 0
1538 1 1 -7.3996213522421082e+00 -6.6338208062424755e+00 -1.3761753785999010e+01 0 0 0
1539 1 1 -7.5733804063455175e+00 -5.9167084296458778e+00 -1.4371486579890231e+01 0 0 0
1515 1 1 -6.5479646283361808e+00 -6.3565630350413631e+00 -1.4430360155891981e+01 0 0 0
1514 1 1 -5.7691843382071184e+00 -6.8397439552518167e+00 -1.4513924885993893e+01 0 0 0
1601 2 2 -6.3590067355934403e+00 -7.0134299458197749e+00 -1.3613483184218660e+01 0 0 0
1513 1 1 -5.6047370231497391e+00 -6.2604772242435223e+00 -1.3744391989601711e+01 0 0 0
1569 1 1 -5.2985830919084576e+00 -7.3536676826888323e+00 -1.3593869582708148e+01 0 0 0
1568 1 1 -4.6180283809805740e+00 -6.6838255761814596e+00 -1.3242782162817136e+01 0 0 0
268 1 1 1.2280906246978551e+01 2.1037909837647972e+00 -3.5188379764067061e+00 0 0 0
2223 1 1 1.2557929555303458e+01 -6.8039389361733358e+00 -1.3932335556883819e+01 0 0 0
2221 2 2 1.3583307404148645e+01 -7.1617163098570806e+00 -1.3992150645029765e+01 0 0 0
2222 2 2 1.3039031590829843e+01 -7.2282801725195407e+00 -1.3281950970957938e+01 0 0 0
2199 1 1 1.3521703028244884e+01 -6.2367637191050722e+00 -1.3492987340715898e+01 0 0 0
2202 2 2 1.4357326354573450e+01 -6.4224180761349512e+00 -1.4248372157248989e+01 0 0 0
2123 1 1 1.5270011360742375e+01 -6.5562052680227119e+00 -1.3666411714775030e+01 0 0 0
2203 1 1 1.5306842683506584e+01 -6.8850881432289182e+00 -1.4671158515832019e+01 0 0 0
1361 2 2 -1.2670510238488221e+01 -4.9328625892275086e+00 -1.3360140331799716e+01 0 0 0
269 1 1 1.1345462377261804e+01 1.9941258445503747e+00 -3.2550213865152404e+00 0 0 0
1380 1 1 -1.0908040397820159e+01 -5.5002160717168849e+00 -1.4113315267378630e+01 0 0 0
1381 2 2 -1.0487418951220569e+01 -5.2142061654803697e+00 -1.3347666503923186e+01 0 0 0
1320 1 1 -1.0128375067020682e+01 -4.8402414836453209e+00 -1.4459940244195556e+01 0 0 0
1319 1 1 -9.8272716527619544e+00 -4.5192031971079105e+00 -1.3682918502442970e+01 0 0 0
270 1 1 1.1433382509737804e+01 2.5529500070402356e+00 -4.0543429292525026e+00 0 0 0
1477 1 1 -8.4290852311005331e+00 -5.1660037326152217e+00 -1.4507566467771758e+01 0 0 0
239 1 1 8.7308361140837203e+00 -2.4389171190681322e+00 -4.8508898981350486e+00 0 0 0
1476 1 1 -7.7445410291214776e+00 -4.9145010779936520e+00 -1.3839908683310730e+01 0 0 0
1599 1 1 -6.7881541514770527e+00 -5.6295959183130595e+00 -1.3542702697530453e+01 0 0 0
2224 1 1 1.2512957060651702e+01 -5.8413285780215878e+00 -1.3775337571282915e+01 0 0 0
2200 1 1 1.3609149770662068e+01 -5.4063218730695342e+00 -1.3963873470896937e+01 0 0 0
2124 1 1 1.5244292627345272e+01 -5.8345825264590587e+00 -1.4303062884793281e+01 0 0 0
2201 2 2 1.4243131037938513e+01 -5.5795378256371864e+00 -1.4644272731043962e+01 0 0 0
2126 1 1 1.4517799280518400e+01 -5.8049618653631594e+00 -1.3454244445638786e+01 0 0 0
2125 1 1 1.4802184657693756e+01 -5.0378550416952868e+00 -1.3841690514182137e+01 0 0 0
1360 1 1 -1.2688981516590902e+01 -4.2506500743515900e+00 -1.4102527319935618e+01 0 0 0
1358 1 1 -1.3599802577278645e+01 -3.7292850755700750e+00 -1.3587198695550068e+01 0 0 0
1357 1 1 -1.3165266064544465e+01 -3.1185985997101726e+00 -1.4161274714191325e+01 0 0 0
1359 1 1 -1.2696961557374454e+01 -3.7036553258223517e+00 -1.3350391909382976e+01 0 0 0
1323 1 1 -1.1735331574359153e+01 -4.0996785887450695e+00 -1.4626411378202292e+01 0 0 0
1322 2 2 -1.1699692064742433e+01 -4.1847093261405979e+00 -1.3639687253257449e+01 0 0 0
1324 1 1 -1.2060866919500356e+01 -3.2755018081029634e+00 -1.4154135559636275e+01 0 0 0
1192 1 1 -1.0967654190032473e+01 -3.3517012259951020e+00 -1.4253015265738657e+01 0 0 0
1321 2 2 -1.0859250127093460e+01 -4.4022222610117723e+00 -1.3997334764802048e+01 0 0 0
1194 1 1 -9.9153404112672145e+00 -3.6816377984729480e+00 -1.4410816267813431e+01 0 0 0
1343 1 1 -1.0332836131354417e+01 -3.5932271282332069e+00 -1.3439519717717413e+01 0 0 0
1195 1 1 -9.1821844364361738e+00 -4.3141150570952949e+00 -1.4468108621119535e+01 0 0 0
1196 1 1 -8.3093865718695348e+00 -3.9655907513081377e+00 -1.4132204877295511e+01 0 0 0
1318 1 1 -9.2119391036060261e+00 -3.7668695658754965e+00 -1.3529191709801374e+01 0 0 0
1355 1 1 -1.4354203895019054e+01 -1.9204565183343025e+00 -1.3677956344489866e+01 0 0 0
1354 1 1 -1.4187062317519885e+01 -1.7377749103625635e+00 -1.4626963267038487e+01 0 0 0
1356 1 1 -1.4061210690970238e+01 -2.7644779950079270e+00 -1.4268516215960622e+01 0 0 0
1265 1 1 -1.3432313565491130e+01 -2.3839757629586531e+00 -1.3425569331633833e+01 0 0 0
1350 1 1 -1.3184979793138616e+01 -2.0232092261219856e+00 -1.4413505368676182e+01 0 0 0
1266 1 1 -1.2758848428246923e+01 -1.7026484407984326e+00 -1.3468724838596907e+01 0 0 0
1325 1 1 -1.2395548521994725e+01 -2.6791095347321816e+00 -1.3476849272868430e+01 0 0 0
1346 1 1 -1.2073273374883360e+01 -2.1923685378740827e+00 -1.4381481991501593e+01 0 0 0
1345 1 1 -1.1323998865433614e+01 -2.3675273617376886e+00 -1.3894355901128694e+01 0 0 0
1344 1 1 -1.0531399873640131e+01 -2.6714638430195481e+00 -1.3454080350566572e+01 0 0 0
1188 1 1 -1.2610091137891757e+01 -1.0574891969964333e+00 -1.4308137555769282e+01 0 0 0
1187 1 1 -1.3554939370934621e+01 -1.1136330411316699e+00 -1.3804037095412896e+01 0 0 0
1327 1 1 -1.1759262686145718e+01 -1.4123324606841385e+00 -1.3603951416653082e+01 0 0 0
1329 1 1 -1.1070061468686305e+01 -5.2186596651473127e-01 -1.3499972276622673e+01 0 0 0
1328 1 1 -1.0959754448058524e+01 -1.2560261306256983e+00 -1.4122413853133022e+01 0 0 0
1330 1 1 -1.0124938305742377e+01 -6.7082233167644900e-01 -1.3641276444590369e+01 0 0 0
506 1 1 -3.5513549755932532e+00 3.1438309174461732e+00 -1.3501050999449122e+01 0 0 0
1430 1 1 -1.1534774152938057e+01 -1.1132040466000515e+01 -1.2549894434456055e+01 0 0 0
1429 1 1 -1.2200003098987811e+01 -1.0416244202048707e+01 -1.2653962469156234e+01 0 0 0
1450 1 1 -1.0393124848867046e+01 -1.0704891885896403e+01 -1.2579411930841879e+01 0 0 0
1458 1 1 -1.2804505342974570e+01 -9.5651386703730008e+00 -1.2899614974499610e+01 0 0 0
1449 1 1 -1.1169807333546048e+01 -1.0166897787272218e+01 -1.2854412300272184e+01 0 0 0
1428 1 1 -1.1778052212523789e+01 -1.0241034475572912e+01 -1.1864896446461108e+01 0 0 0
1460 1 1 -1.1811993330025093e+01 -9.3383506960140252e+00 -1.2576384401878093e+01 0 0 0
1448 1 1 -1.0918820805300641e+01 -9.3223350431259817e+00 -1.3223916387442566e+01 0 0 0
1459 1 1 -1.2336058922695676e+01 -8.8748672044589441e+00 -1.3337056217889543e+01 0 0 0
1447 1 1 -1.0229723130118872e+01 -9.6327386221233446e+00 -1.2682975089624213e+01 0 0 0
224 1 1 8.1928706550393287e+00 -1.7104791341380694e+00 -5.6187743440361118e+00 0 0 0
1462 2 2 -1.0844784796300269e+01 -8.8498636282755800e+00 -1.2152628153516115e+01 0 0 0
1445 1 1 -9.3830602634245039e+00 -1.0256972332686102e+01 -1.3033709468957893e+01 0 0 0
1444 1 1 -9.0341033373598627e+00 -9.5314889030984169e+00 -1.2669737764090662e+01 0 0 0
1584 1 1 -8.2353330079981166e+00 -8.8043973873902850e+00 -1.2832912739133308e+01 0 0 0
1525 1 1 -7.2146803590528865e+00 -9.3829530085624349e+00 -1.3000996123201173e+01 0 0 0
1585 1 1 -7.9944682127622650e+00 -9.4870885580291535e+00 -1.2271574097213678e+01 0 0 0
1528 1 1 -6.8096433454721259e+00 -9.8333017449207532e+00 -1.2062341983704767e+01 0 0 0
1529 1 1 -6.0638134564840147e+00 -1.0070393501202210e+01 -1.2780506647903774e+01 0 0 0
1527 1 1 -6.0010055504219446e+00 -9.1786811399697150e+00 -1.1946831456671502e+01 0 0 0
1526 1 1 -6.3837440292398755e+00 -9.0737108330050145e+00 -1.2765989289054977e+01 0 0 0
2211 1 1 1.3894567087234385e+01 -8.9086997465831885e+00 -1.3307461868857702e+01 0 0 0
1395 1 1 -1.3440796518044721e+01 -8.7343590103574229e+00 -1.3072918644033459e+01 0 0 0
1394 1 1 -1.3671213363502353e+01 -8.2829299681437831e+00 -1.2286633166319398e+01 0 0 0
1417 1 1 -1.2729403706397061e+01 -7.9902744894291073e+00 -1.2802955024447650e+01 0 0 0
1416 1 1 -1.2636437752756828e+01 -8.6933974095286803e+00 -1.2296469422307219e+01 0 0 0
1418 1 1 -1.3321331954895903e+01 -7.4044128425784423e+00 -1.3188837769516784e+01 0 0 0
1393 1 1 -1.3766987768003906e+01 -7.3448280085312678e+00 -1.2056617379899203e+01 0 0 0
165 1 1 1.0829884623357525e+01 1.6227282942654748e+00 -4.0986152686043429e+00 0 0 0
1423 1 1 -1.1780095791835985e+01 -8.0750126168799863e+00 -1.2040714363780996e+01 0 0 0
1422 2 2 -1.1795753522641535e+01 -7.4295143636948948e+00 -1.2710088208702167e+01 0 0 0
271 1 1 1.0432419251890884e+01 2.5789116422528475e+00 -3.7731848796654668e+00 0 0 0
167 1 1 9.4797008876187352e+00 1.9440415941583338e+00 -3.3945693850541563e+00 0 0 0
1482 2 2 -9.7481052611459074e+00 -7.7302946122195895e+00 -1.2454719227755412e+01 0 0 0
168 1 1 9.7760053487032579e+00 1.7641999197655656e+00 -4.2372101388850743e+00 0 0 0
1583 1 1 -9.1329440084271116e+00 -8.5128698574545432e+00 -1.2907250710467039e+01 0 0 0
240 1 1 9.1821623120799849e+00 -2.2796903599132428e+00 -5.5863611830470381e+00 0 0 0
1582 2 2 -8.2312579943006110e+00 -7.7693181567713410e+00 -1.2600141380657810e+01 0 0 0
1561 2 2 -7.2982971510702566e+00 -8.2983935854246162e+00 -1.2821839069461744e+01 0 0 0
1560 1 1 -7.1170239020349122e+00 -8.8035272101088857e+00 -1.2064073706195540e+01 0 0 0
1558 1 1 -7.2465068872098017e+00 -7.7101544262589030e+00 -1.1901483191902338e+01 0 0 0
1559 1 1 -7.9109290894959878e+00 -8.4651595509565709e+00 -1.1861022381795712e+01 0 0 0
1565 1 1 -5.3722467825928764e+00 -8.6297193321441359e+00 -1.2692312147572940e+01 0 0 0
1603 1 1 -6.3395728525942934e+00 -8.1237278950761720e+00 -1.2315424432267575e+01 0 0 0
1570 1 1 -5.3002990232786464e+00 -7.5791382748412861e+00 -1.2690049320712264e+01 0 0 0
1602 2 2 -6.3366642519385028e+00 -7.4042480241873747e+00 -1.2800948658866806e+01 0 0 0
1566 1 1 -4.6861870160501073e+00 -8.3090839059529138e+00 -1.3227411560277160e+01 0 0 0
1608 1 1 -4.5782820455659925e+00 -8.1529016312868823e+00 -1.2098080392564826e+01 0 0 0
1567 1 1 -4.2416316678737491e+00 -7.4797311369189607e+00 -1.3007396620579447e+01 0 0 0
1712 1 1 2.0056507534999839e+00 -7.3367827395987932e+00 -1.2107386499665511e+01 0 0 0
1855 1 1 3.0817485381450935e+00 -7.5687057920268082e+00 -1.1887876408905536e+01 0 0 0
2016 1 1 5.2425844869698830e+00 -7.3982441586501944e+00 -1.1817270136755486e+01 0 0 0
2114 1 1 1.2259313829886448e+01 -8.3533458335731243e+00 -1.1895677197911073e+01 0 0 0
2116 1 1 1.2338787150939812e+01 -8.0531814047687149e+00 -1.2962143324730066e+01 0 0 0
2117 1 1 1.3197657690856911e+01 -8.5141464941668890e+00 -1.2497849222565119e+01 0 0 0
2115 1 1 1.2722833705320582e+01 -7.5756780106478736e+00 -1.2314445349181998e+01 0 0 0
2118 1 1 1.3746354900294552e+01 -7.8033611710851236e+00 -1.2713540251408363e+01 0 0 0
2119 1 1 1.4544509725467448e+01 -8.0450295363171271e+00 -1.3160313712343081e+01 0 0 0
2194 1 1 1.4074163033544110e+01 -8.2732574628613058e+00 -1.1826109979930747e+01 0 0 0
237 1 1 8.0447691972424522e+00 -2.8168980202871898e+00 -5.5847340202590301e+00 0 0 0
166 1 1 1.0341678741291469e+01 1.5145731827092217e+00 -3.3134271615278381e+00 0 0 0
1300 1 1 -1.2729460159228594e+01 -5.9272243641982918e+00 -1.2089830172678122e+01 0 0 0
1421 2 2 -1.2288053271074320e+01 -6.9886390027303706e+00 -1.3329450713552554e+01 0 0 0
169 1 1 9.4429624710814100e+00 2.6081973362049067e+00 -4.2613293600653783e+00 0 0 0
198 1 1 8.7369862326762391e+00 1.6724843766072643e+00 -4.3648547133309252e+00 0 0 0
632 1 1 -1.8921609963420294e+00 2.1750394348424278e+00 -3.1268107098854347e+00 0 0 0
1383 1 1 -1.0407759069844873e+01 -6.1060315645801468e+00 -1.2074442777694610e+01 0 0 0
631 1 1 -1.7126211359741967e+00 2.9868589506932719e+00 -3.6605131011206753e+00 0 0 0
1543 1 1 -8.9648058015223331e+00 -7.1110330645441957e+00 -1.2178672274912953e+01 0 0 0
1542 2 2 -8.9743117295544383e+00 -6.2984882888433429e+00 -1.2492917448045207e+01 0 0 0
1581 2 2 -7.9567835250485954e+00 -6.7200563903334896e+00 -1.2155323811830835e+01 0 0 0
621 2 2 -1.4910782815142223e+00 2.0538778873551475e+00 -4.1981157824283581e+00 0 0 0
624 1 1 -2.8006742022018241e+00 2.7244182837206417e+00 -3.2034403017006432e+00 0 0 0
1600 1 1 -6.6341754646816185e+00 -6.3736870053153449e+00 -1.3064005928270415e+01 0 0 0
1579 1 1 -7.6521004641297692e+00 -5.9550403120660000e+00 -1.2896088492289623e+01 0 0 0
1512 1 1 -5.6260711302690547e+00 -6.5580020041450791e+00 -1.2869184128461756e+01 0 0 0
1575 1 1 -5.8589143746110475e+00 -7.0617747792802250e+00 -1.1920439176346656e+01 0 0 0
1576 1 1 -6.0010639234972141e+00 -6.1609500646496196e+00 -1.1986575788481304e+01 0 0 0
1571 1 1 -4.8440612481876526e+00 -6.9228051691338921e+00 -1.2227710053256828e+01 0 0 0
1609 1 1 -3.9131404970652621e+00 -7.3817708855521893e+00 -1.1822122744029313e+01 0 0 0
1508 1 1 -4.2070980625613910e+00 -6.0710310613696636e+00 -1.2493038679116202e+01 0 0 0
1618 1 1 -2.7932844328968667e+00 -5.9645186478393679e+00 -1.2157598286770076e+01 0 0 0
1707 1 1 5.6625234772323929e-01 -6.9555972179783563e+00 -1.2158767812796466e+01 0 0 0
1708 1 1 6.8705020816843743e-01 -6.0113828590637777e+00 -1.2396386465054492e+01 0 0 0
1711 1 1 1.6071722281111214e+00 -6.6779112556992617e+00 -1.2673046444640798e+01 0 0 0
1714 1 1 3.4556892925361069e+00 -6.7707485709191406e+00 -1.2525609233048010e+01 0 0 0
1713 1 1 2.6166551898002450e+00 -6.5917065391891505e+00 -1.2185804021853485e+01 0 0 0
1715 1 1 4.1898824224955131e+00 -6.3405591367880305e+00 -1.2114406888556562e+01 0 0 0
2068 1 1 1.0356815905548871e+01 -6.4016306269571173e+00 -1.2123557561542887e+01 0 0 0
2069 1 1 9.7202499240291207e+00 -5.9612952054646717e+00 -1.2625265457330297e+01 0 0 0
2168 1 1 1.1735972309972455e+01 -7.4210510978274922e+00 -1.1887368824874589e+01 0 0 0
2226 1 1 1.2027719401407760e+01 -7.0164964910188408e+00 -1.2943099663520835e+01 0 0 0
2227 1 1 1.1577721298123022e+01 -6.4031722634859554e+00 -1.2323752866633459e+01 0 0 0
2228 1 1 1.2456368767427618e+01 -6.5883745118811374e+00 -1.1969684014123620e+01 0 0 0
2225 1 1 1.2564243656283228e+01 -6.2908103174731487e+00 -1.2960552152353223e+01 0 0 0
2197 1 1 1.3402462779427980e+01 -6.7608696248212432e+00 -1.2371284621381236e+01 0 0 0
622 2 2 -2.4182122835591588e+00 2.1140239328297703e+00 -4.0705647062110666e+00 0 0 0
623 1 1 -3.3462041821824378e+00 2.3380838274551770e+00 -3.8728925119448165e+00 0 0 0
2196 1 1 1.4186194114449355e+01 -6.9943486153375689e+00 -1.2018396366831402e+01 0 0 0
2198 1 1 1.3870833135703412e+01 -6.1084590822385216e+00 -1.2661349524776476e+01 0 0 0
2122 2 2 1.5354959351563604e+01 -7.2902748309211418e+00 -1.3182051583926816e+01 0 0 0
1298 1 1 -1.4007589337752517e+01 -4.9020533871330523e+00 -1.2059896824807387e+01 0 0 0
1362 2 2 -1.2447074466934110e+01 -5.8468734501925761e+00 -1.3377991950600086e+01 0 0 0
1299 1 1 -1.3359316000285883e+01 -5.4545444229617752e+00 -1.2597248298752334e+01 0 0 0
1261 2 2 -1.2919653439416496e+01 -4.7466300649886444e+00 -1.1927201093173096e+01 0 0 0
625 1 1 -2.8676754668586857e+00 1.6427041239852231e+00 -3.1874135593454209e+00 0 0 0
1301 2 2 -1.2184446713234538e+01 -5.3064058034246573e+00 -1.2439256531685192e+01 0 0 0
1302 2 2 -1.1377642718911927e+01 -4.9929309093618786e+00 -1.2212230441274462e+01 0 0 0
1382 2 2 -1.0903160051069506e+01 -5.7788023661842400e+00 -1.2763064666062299e+01 0 0 0
1403 1 1 -9.7738873508140998e+00 -5.7600350745463667e+00 -1.2900557386685964e+01 0 0 0
626 1 1 -3.6990612197069632e+00 2.0847161217720411e+00 -2.8603540806424168e+00 0 0 0
1541 2 2 -8.7136209832546623e+00 -5.7164309690840431e+00 -1.3109642861278187e+01 0 0 0
1404 1 1 -9.2898382980632785e+00 -5.0455138146269984e+00 -1.2560877271945694e+01 0 0 0
1474 1 1 -8.2373295029796978e+00 -4.9123943495499098e+00 -1.2628021163346768e+01 0 0 0
1580 1 1 -8.1445991887692664e+00 -5.8646701008926376e+00 -1.2142106527521983e+01 0 0 0
1473 1 1 -8.5015713559318744e+00 -4.8283464915047762e+00 -1.1807362277690977e+01 0 0 0
1577 1 1 -6.8488164350990379e+00 -5.6330185735681804e+00 -1.2355859009475500e+01 0 0 0
1578 1 1 -7.4481687604838731e+00 -5.1423512874784354e+00 -1.1942967579666593e+01 0 0 0
1475 1 1 -7.4285523138620793e+00 -4.8937105514223145e+00 -1.3005768091543503e+01 0 0 0
1597 1 1 -6.7278087764437373e+00 -4.5372501952445754e+00 -1.2331263056241133e+01 0 0 0
1598 1 1 -6.3946150872163505e+00 -4.7508391488998818e+00 -1.3185000438105908e+01 0 0 0
1511 1 1 -5.8745617052598984e+00 -5.6374282587012949e+00 -1.2898357018766204e+01 0 0 0
1554 1 1 -5.9501076613663590e+00 -5.1323242738946746e+00 -1.1973466463632153e+01 0 0 0
1506 1 1 -5.2965876675576933e+00 -4.6485198821716764e+00 -1.2691084235012490e+01 0 0 0
1510 1 1 -4.9832672998121179e+00 -5.6450287643371091e+00 -1.3098941137544701e+01 0 0 0
1509 1 1 -5.0098413475050787e+00 -5.7481559262317159e+00 -1.2199546471488929e+01 0 0 0
1507 1 1 -4.2983762239155441e+00 -4.9373903380833593e+00 -1.2580978328480176e+01 0 0 0
1505 1 1 -4.9816302468041114e+00 -4.7027357058049866e+00 -1.1811045946994810e+01 0 0 0
1619 1 1 -3.5380956383374582e+00 -5.4072055610386194e+00 -1.1916813247654780e+01 0 0 0
238 1 1 7.9362240150097145e+00 -2.1007066229146800e+00 -4.6098725139141061e+00 0 0 0
1702 2 2 -1.0547689859179443e+00 -4.5806597693345061e+00 -1.1881733984557769e+01 0 0 0
1703 1 1 -6.3932766225670823e-01 -5.3648068924794812e+00 -1.1893807048381042e+01 0 0 0
1709 1 1 1.5181435045276279e+00 -5.6415983883884362e+00 -1.2088387362855716e+01 0 0 0
2070 1 1 9.4392472011685165e+00 -5.0141485428466908e+00 -1.2346245911855751e+01 0 0 0
2071 1 1 1.0022068297649959e+01 -4.5592569152519271e+00 -1.1820634216831449e+01 0 0 0
2136 1 1 1.0956093655329529e+01 -5.4126693036175366e+00 -1.2270075628176597e+01 0 0 0
2131 1 1 1.2052945424918777e+01 -5.4090626035378140e+00 -1.2697582409090877e+01 0 0 0
2137 1 1 1.1446054844763834e+01 -4.6007700248564865e+00 -1.2029966911077629e+01 0 0 0
2132 1 1 1.2405815290268121e+01 -4.5179425124237467e+00 -1.2567895588139542e+01 0 0 0
2129 1 1 1.3124434753645927e+01 -5.3672383903276693e+00 -1.2997333762077382e+01 0 0 0
2130 1 1 1.2913740962825106e+01 -5.6779215384978379e+00 -1.2168851189745025e+01 0 0 0
2188 1 1 1.3403519861484865e+01 -4.6745112568421643e+00 -1.2228053377184185e+01 0 0 0
2128 1 1 1.3964024501978106e+01 -4.9419061402790021e+00 -1.3064292583965404e+01 0 0 0
2127 1 1 1.4803385091002816e+01 -5.2834330769576408e+00 -1.2718819203707382e+01 0 0 0
2189 1 1 1.4023522690618559e+01 -5.3006795435863125e+00 -1.2032865482424333e+01 0 0 0
1263 1 1 -1.4114614808739388e+01 -3.9359656747792395e+00 -1.2664123632751233e+01 0 0 0
1184 1 1 -1.4406280282632400e+01 -3.0542833875230810e+00 -1.2179803792926938e+01 0 0 0
1264 1 1 -1.4276843966881424e+01 -2.9623717615938610e+00 -1.3231038567117839e+01 0 0 0
1262 2 2 -1.3237044169900155e+01 -4.2714802432811503e+00 -1.2616902341704973e+01 0 0 0
209 1 1 7.1152056837355193e+00 -1.6334626424721386e+00 -5.3848626966621547e+00 0 0 0
705 1 1 -4.3884655858411312e+00 2.5981946901567063e+00 -3.7262220490132436e+00 0 0 0
1281 2 2 -1.1359343502409143e+01 -3.8126045945853324e+00 -1.2105565110545934e+01 0 0 0
1060 1 1 -1.2266852056435447e+01 -3.1555230189018610e+00 -1.2493935648987520e+01 0 0 0
208 1 1 7.1230066175139060e+00 -2.5487361967913320e+00 -5.1104120292954880e+00 0 0 0
706 1 1 -5.0369105410360673e+00 1.9827443719370486e+00 -4.0085943980997572e+00 0 0 0